begin
lattice 24.5567 0 0
lattice 0 24.5567 0
lattice 0 0 24.5567
atom 10.9236 9.3277 24.4015 H 0 -0.115862 -0.00918135 -0.0240158 -0.00202955
atom 11.4049 11.9353 23.2942 H 0 -0.116002 -0.0029037 0.0283697 -0.0338997
atom 2.57713 24.0867 23.8029 H 0 -0.114553 -0.0159884 0.00817885 -0.00173445
atom 4.83142 24.241 22.0599 H 0 -0.118163 0.00900152 0.00567836 -0.0194895
atom 18.0348 21.6446 16.1404 H 0 -0.102639 0.00385445 0.0100755 -0.0106661
atom 18.0815 22.8918 13.3988 H 0 -0.106861 -0.00578356 -0.00186262 -0.00508219
atom 4.60638 4.03568 13.5314 H 0 -0.103889 -0.00978898 0.000940565 0.00545471
atom 5.44439 1.44126 14.6201 H 0 -0.109351 -0.000111541 0.00417149 -0.00383557
atom 9.55634 17.8138 15.5629 H 0 -0.100576 -0.0133882 0.00462886 0.0255847
atom 11.7111 16.3261 14.1924 H 0 -0.11589 0.0236403 -0.0161384 0.00655843
atom 2.56954 11.5858 24.3357 H 0 -0.114579 -0.00679132 0.00368465 0.0101194
atom 5.04712 11.2687 1.45804 H 0 -0.113812 -0.000577603 0.0023167 0.0107
atom 3.75991 3.02864 3.78178 H 0 -0.0958594 -0.00533986 -0.00434114 0.0199566
atom 5.04222 3.97203 6.37302 H 0 -0.10419 -0.00451332 -0.0188606 -0.00898969
atom 0.621722 2.80562 0.91731 H 0 -0.111115 0.00317644 0.0201108 0.00885898
atom 0.643523 5.40312 2.29222 H 0 -0.112642 -0.0157672 0.0178061 0.0127523
atom 5.97883 8.21579 7.3506 H 0 -0.129824 -0.0440553 0.0553862 -0.021755
atom 8.37995 7.57551 8.72248 H 0 -0.114015 0.00554527 0.000628588 0.0016934
atom 2.25078 21.751 13.9966 H 0 -0.114262 -0.0308682 0.0129757 0.0322171
atom 5.03812 20.7241 14.2437 H 0 -0.0988374 -0.0233249 0.00553652 -0.00339457
atom 17.6587 24.1182 4.19508 H 0 -0.111646 0.036453 -0.00861347 0.0287544
atom 15.2851 0.280834 3.37274 H 0 -0.117352 -0.0372185 0.00927553 -0.00179067
atom 13.244 18.1024 2.48011 H 0 -0.112332 0.0012431 0.000241335 -0.00652656
atom 11.626 17.3251 4.73595 H 0 -0.108958 -0.00172577 -0.000464609 -0.00231516
atom 16.3348 10.7407 14.9423 H 0 -0.120042 -0.011672 0.00438745 -0.0084299
atom 18.6905 9.60013 15.806 H 0 -0.103142 0.00898194 -0.00509712 -0.00264543
atom 18.8943 16.4929 13.112 H 0 -0.11545 -0.0332766 -0.00384767 0.000692909
atom 21.3439 15.4219 12.0112 H 0 -0.114737 -0.0015358 -0.00456974 -0.00334456
atom 23.2438 7.30088 21.0055 H 0 -0.100253 -0.00209843 -0.0111047 0.0118297
atom 22.8097 7.26416 18.1051 H 0 -0.101985 0.00881248 0.00761254 0.0155267
atom 18.1088 19.338 0.860322 H 0 -0.115381 -0.000509622 -0.0127301 -0.00354404
atom 16.2111 21.4005 1.26031 H 0 -0.121142 -0.00868711 0.00886162 0.00486935
atom 10.9941 15.6957 9.83704 H 0 -0.120109 0.0053182 -0.00108581 0.00604481
atom 9.18616 17.7663 9.02083 H 0 -0.109851 -0.0175337 0.0358718 0.012884
atom 2.58246 18.0007 12.1853 H 0 -0.105249 0.00542482 0.00317958 0.000892175
atom 3.23844 15.2101 11.271 H 0 -0.108741 0.00846438 -0.00743596 0.00218471
atom 22.6943 4.65568 8.50002 H 0 -0.103143 -0.0045766 0.00628092 -0.00395043
atom 21.395 6.6226 6.62041 H 0 -0.102198 0.00293632 -0.0221665 0.00370722
atom 7.66461 0.571846 18.1929 H 0 -0.129533 0.0891945 -0.00751045 -0.0021147
atom 5.62193 2.53839 18.7154 H 0 -0.115302 0.00306679 -0.0034575 0.00340155
atom 8.21339 5.11774 23.152 H 0 -0.113649 0.0100774 -0.000300204 0.00288966
atom 11.2328 5.00322 23.2524 H 0 -0.115725 0.00501084 -0.00945469 -0.0124572
atom 9.92178 2.34591 1.12386 H 0 -0.101203 -0.00408915 -0.0330107 0.00173557
atom 8.08103 24.4515 1.32999 H 0 -0.0957604 0.0285051 0.00818599 0.000490678
atom 0.0399059 2.03017 20.1349 H 0 -0.103197 -0.0075799 -0.00493925 -0.0057825
atom 22.9624 0.579333 22.2455 H 0 -0.113923 -0.039706 -0.0247906 -0.00375113
atom 22.7335 19.5599 2.15809 H 0 -0.108271 -0.00521489 -0.00764219 0.00203124
atom 23.0424 18.8842 23.9577 H 0 -0.122289 0.0181527 0.00530362 -0.0297123
atom 19.0317 14.9224 6.34589 H 0 -0.111644 -0.00191747 0.00175054 0.00658715
atom 20.0763 12.2488 7.19492 H 0 -0.115828 0.00824092 -0.00209051 0.0181619
atom 7.44195 17.7158 2.63883 H 0 -0.107492 -0.00111448 -0.00447181 -0.00481283
atom 5.99077 15.1711 2.46288 H 0 -0.116801 0.010337 -0.0161287 0.00802304
atom 21.9665 21.8718 6.31448 H 0 -0.101656 0.00853312 -0.000658262 0.00765549
atom 0.334396 22.3697 5.50383 H 0 -0.0975356 -0.0444436 -0.0172298 -0.00914095
atom 20.8997 18.8723 19.5738 H 0 -0.120574 -0.0232058 0.00364531 -0.0077703
atom 23.3359 17.6073 19.9584 H 0 -0.120079 0.0345279 -0.0501582 -0.00267371
atom 20.8747 22.2663 22.242 H 0 -0.117772 0.0164297 -0.0394181 0.000510007
atom 18.4862 23.2898 23.6287 H 0 -0.11813 -0.00778206 -0.00327106 0.0142762
atom 13.7124 9.87729 7.21543 H 0 -0.115171 -0.000635617 0.00332189 -0.00571354
atom 11.1828 11.2643 7.07623 H 0 -0.113899 -0.0123076 0.0069787 -0.0093769
atom 1.03809 3.18139 10.7861 H 0 -0.106909 0.00294801 -0.0128093 -0.00350678
atom 23.2443 4.33811 12.1907 H 0 -0.100164 0.0225918 0.00473414 -0.011294
atom 19.832 3.23307 22.3939 H 0 -0.11531 0.0161296 -0.0104934 -0.0128608
atom 18.691 3.19137 0.416586 H 0 -0.121258 0.00265197 -0.0064523 0.0161889
atom 22.482 11.32 24.0418 H 0 -0.122858 -0.00442462 0.0040343 0.00356275
atom 22.6368 14.0838 0.407818 H 0 -0.120275 -0.0362135 0.0654522 0.00370461
atom 7.69266 8.10719 15.3922 H 0 -0.0946617 0.000170928 0.0101492 -0.00151273
atom 8.15983 10.6772 16.7825 H 0 -0.103909 -0.011501 -0.00433271 -0.00877125
atom 16.5173 17.2669 16.4001 H 0 -0.11484 -0.000996004 -0.00291625 -0.00544777
atom 18.1112 16.6582 18.8122 H 0 -0.119632 -0.00197763 -0.0119213 0.001988
atom 15.4331 16.9323 11.333 H 0 -0.109924 0.00976527 0.011954 -0.0308921
atom 14.9206 14.6535 13.0564 H 0 -0.105238 -0.00832056 -0.00508924 0.00114678
atom 16.7679 0.298335 9.61972 H 0 -0.108987 0.010092 0.0325963 -0.000283208
atom 14.42 23.0286 9.8476 H 0 -0.108745 0.00143977 -0.000664649 0.00969538
atom 22.5746 21.8062 15.5595 H 0 -0.111336 -0.00638099 0.00934484 -0.0071136
atom 24.1091 21.3315 17.8505 H 0 -0.11125 0.00461955 -0.000999226 0.00751828
atom 7.41759 13.9483 10.1129 H 0 -0.102262 -0.0233258 -0.0221357 0.0149571
atom 6.6894 11.7751 12.0698 H 0 -0.122656 0.0284621 -0.0200676 0.033261
atom 20.1351 10.1507 11.6778 H 0 -0.102488 0.0125331 0.0202508 -0.00799619
atom 22.846 11.3039 11.6844 H 0 -0.11747 0.0366157 -0.00512614 0.0157236
atom 17.3332 2.37864 15.8975 H 0 -0.1097 -0.00166154 -0.0113913 0.00309338
atom 17.2991 4.36931 13.8116 H 0 -0.11295 0.00855871 -0.00207514 -0.0106899
atom 4.45163 4.43691 22.7348 H 0 -0.126111 -0.0210814 -0.012183 0.0225963
atom 5.08276 7.03029 21.7591 H 0 -0.116134 -0.0042414 0.0104983 -0.00206288
atom 21.1954 13.1904 19.0057 H 0 -0.116332 0.0267083 -0.00363812 -0.0194666
atom 19.7706 12.1091 21.2423 H 0 -0.11905 -0.00440098 -0.00291951 0.0061896
atom 9.37092 12.5555 3.02103 H 0 -0.118232 0.0112941 -0.00660308 -0.0190916
atom 8.85491 14.15 5.41161 H 0 -0.115909 -0.0125862 -0.00510653 -0.0118418
atom 21.5521 19.6338 11.4098 H 0 -0.105073 0.000257347 0.000269268 -0.0221059
atom 23.3184 18.9392 9.20115 H 0 -0.110576 0.0110101 -0.00600342 -0.000586222
atom 11.7795 14.4119 19.3181 H 0 -0.101852 -0.00480184 0.0135054 0.0116523
atom 10.7322 16.9129 20.8191 H 0 -0.102067 0.00799603 -0.0166003 -0.00890337
atom 14.3201 7.3235 19.5751 H 0 -0.100861 -0.000538897 -0.0184238 -0.0127251
atom 15.5252 6.69766 16.8835 H 0 -0.111161 -0.00502039 -0.00569356 0.00897706
atom 11.5568 22.9789 12.6696 H 0 -0.106242 -0.0119183 0.020827 0.0119777
atom 11.7011 20.0539 12.171 H 0 -0.106887 -0.00368013 0.00875745 0.00261776
atom 22.4547 9.15338 2.7577 H 0 -0.125123 -0.013484 0.0154077 -0.0173963
atom 0.293421 9.45343 4.38335 H 0 -0.11822 0.0100876 0.0113123 0.00556506
atom 5.64869 21.7771 18.5985 H 0 -0.10645 0.00387897 -0.00694725 -0.00993941
atom 5.3424 18.836 18.702 H 0 -0.101964 -0.00420118 -0.0062462 -0.0114995
atom 2.99497 17.9987 0.261152 H 0 -0.103673 0.00811345 -0.00296543 -0.00277013
atom 3.9346 20.5114 23.7968 H 0 -0.0998584 -0.00561546 -0.00364908 -0.0143899
atom 3.04183 18.8175 8.28917 H 0 -0.114213 -0.00255026 -0.0281283 0.00509596
atom 2.58913 21.5367 8.77915 H 0 -0.117553 0.00802586 -0.0026769 -0.0227867
atom 12.3623 3.68459 8.16773 H 0 -0.113929 -0.0101732 -0.0148273 -0.0194698
atom 12.7448 6.53769 8.95392 H 0 -0.115474 -0.00518198 0.00442812 -0.00498545
atom 3.78924 14.6426 19.2034 H 0 -0.0941444 0.0134309 0.0114026 0.0123948
atom 3.10021 17.1126 20.9827 H 0 -0.0929432 5.48852e-05 -0.00200833 -0.00956702
atom 22.0833 2.81066 4.32826 H 0 -0.108886 -0.0019799 0.0173894 0.0271639
atom 22.4755 0.201273 3.12385 H 0 -0.0983658 -0.00606577 0.00423941 0.00585872
atom 6.1568 21.4072 6.96976 H 0 -0.103066 -0.0208404 -0.00480157 -0.0045934
atom 6.29885 24.2921 6.12496 H 0 -0.106634 -0.0026184 -0.00418785 0.00137102
atom 8.92629 2.67468 12.7857 H 0 -0.101496 0.0135125 -0.0141718 0.0116291
atom 11.8835 3.05784 12.5297 H 0 -0.106737 -0.00527439 -0.000660149 8.71627e-05
atom 2.87764 0.899434 8.28788 H 0 -0.107655 0.00672397 0.00513729 0.00359451
atom 3.32843 0.0901386 11.2172 H 0 -0.112129 0.0107894 0.00765113 -0.00432303
atom 16.5426 11.7332 4.45282 H 0 -0.108804 -0.00320515 -0.0191017 -0.00296526
atom 14.0907 10.6957 3.03138 H 0 -0.116852 -0.00942627 0.00484072 -0.0148032
atom 2.32699 7.53297 14.1516 H 0 -0.102142 0.00323076 -0.0248982 0.0262332
atom 1.44469 5.41112 16.1428 H 0 -0.115178 -0.0318257 -0.0122596 0.0107158
atom 0.946492 15.2656 17.059 H 0 -0.105593 0.00542916 0.00036662 0.00470388
atom 23.0992 15.4621 15.4767 H 0 -0.114498 -0.0174934 0.0130197 -0.0171251
atom 1.36407 11.9459 14.3211 H 0 -0.11161 -0.0064681 0.00431737 0.00455477
atom 3.82683 10.888 13.1798 H 0 -0.116417 -0.0185145 -0.00136891 -0.000147489
atom 14.0612 10.9898 18.4648 H 0 -0.100997 0.0104007 0.00688514 -0.0131004
atom 16.3131 12.8114 18.7468 H 0 -0.115992 0.0380344 0.00404976 0.0172122
atom 11.6854 23.2074 7.29436 H 0 -0.107503 -0.00067266 0.0216545 -0.00968932
atom 11.0914 24.1527 4.62527 H 0 -0.112483 -0.00485971 0.012757 -0.00576467
atom 12.7687 11.0788 11.5575 H 0 -0.103034 -0.00370012 0.00369595 -0.00460662
atom 11.14 11.4549 13.9771 H 0 -0.104324 0.00769965 0.00270897 -0.00540027
atom 14.1667 19.0613 22.3283 H 0 -0.120654 -0.0061404 0.00975125 0.00508984
atom 14.4277 18.9302 19.5756 H 0 -0.123425 0.0237851 -0.0094597 -0.028653
atom 21.2736 3.72331 16.5218 H 0 -0.10917 0.00321222 0.00489268 -0.00477684
atom 23.123 1.62905 16.3269 H 0 -0.122638 0.0102847 -0.0538747 -0.00354307
atom 16.071 4.06733 9.97386 H 0 -0.105006 0.0130013 0.00302168 0.00083885
atom 19.1304 4.16649 9.45883 H 0 -0.0978146 -0.00731736 0.00213787 -0.00365025
atom 13.227 2.26427 20.1226 H 0 -0.105101 0.00178539 0.010538 0.00962904
atom 15.175 3.70176 21.9859 H 0 -0.111523 0.0358436 -0.0122584 0.0175734
atom 7.34946 13.6664 20.1303 H 0 -0.103722 -0.00645231 -0.00288017 0.00189274
atom 5.37472 11.8719 21.6469 H 0 -0.102253 0.00408385 0.00811023 -0.00637144
atom 11.6475 0.192618 16.7912 H 0 -0.101669 -0.00282785 0.00565457 0.0199859
atom 12.0945 22.6504 18.913 H 0 -0.0978096 -0.0100309 0.0322379 0.00706982
atom 16.1717 19.6769 7.8232 H 0 -0.105629 0.0118534 -0.00261361 0.00291024
atom 18.7952 18.3799 7.6721 H 0 -0.114557 0.0133839 0.0136005 0.00844853
atom 18.3543 10.1475 1.09619 H 0 -0.121186 -0.00938146 0.00602503 0.0144089
atom 18.5853 8.0011 23.8024 H 0 -0.111213 0.00277681 -0.0165688 -0.00507535
atom 5.03899 11.9911 6.41101 H 0 -0.118536 -0.00981112 -0.00501189 -0.00166364
atom 2.90963 11.1268 8.20031 H 0 -0.114154 -0.00519386 0.00214298 0.0147921
atom 11.4818 10.9995 0.241841 O 0 -0.298074 0.00757054 -0.00422891 0.0420675
atom 4.31339 23.5807 23.6672 O 0 -0.309449 0.0167057 -0.00109432 0.0200042
atom 18.7494 23.0526 15.1203 O 0 -0.322175 -0.00198964 -0.00886193 0.01247
atom 5.36877 2.40303 13.023 O 0 -0.32309 0.0172146 -0.00793598 0.00548247
atom 10.3129 17.4192 13.9851 O 0 -0.316221 -0.0258533 0.0206014 -0.0306499
atom 4.29249 10.9209 24.3973 O 0 -0.315849 -0.000328026 -0.0108911 -0.0177259
atom 4.27089 2.4268 5.54941 O 0 -0.334209 0.0115737 0.0233702 -0.00280273
atom 1.75411 4.1617 1.58514 O 0 -0.329616 0.0239152 -0.0228527 -0.0255408
atom 6.93677 6.86416 7.86647 O 0 -0.289569 0.032493 -0.0590618 0.0175742
atom 3.59486 21.0937 13.0331 O 0 -0.322593 0.0521562 -0.0240315 -0.0144232
atom 16.8968 24.4774 2.62781 O 0 -0.290132 -0.00924272 -0.00127835 -0.0239165
atom 11.6329 17.2741 2.88072 O 0 -0.311647 0.00306777 0.00137331 0.0114034
atom 17.8595 9.9933 14.2118 O 0 -0.313013 -0.000420275 -0.00148146 0.0122488
atom 20.6654 16.7491 13.105 O 0 -0.310426 0.0337643 0.00290758 0.00739947
atom 23.508 8.2914 19.5133 O 0 -0.322021 -0.00754217 0.00592287 -0.0235712
atom 16.2833 19.6508 0.640621 O 0 -0.295257 0.00740628 -0.00435897 0.00169803
atom 9.98486 16.2963 8.42774 O 0 -0.288874 0.0107838 -0.03665 -0.0197252
atom 2.08868 16.6151 11.0345 O 0 -0.312978 -0.0128451 0.00613705 -0.00939376
atom 21.1892 4.84907 7.29585 O 0 -0.337264 0.00782081 0.0149877 -0.00358885
atom 5.96363 0.747645 18.3379 O 0 -0.288888 -0.0895968 0.0176868 0.00650952
atom 9.71795 5.17214 24.3075 O 0 -0.312961 -0.00701086 0.0122763 0.00742902
atom 9.92582 0.381587 1.45975 O 0 -0.334005 -0.026567 0.0189493 -0.00309199
atom 24.2862 1.70404 21.9115 O 0 -0.302638 0.0435376 0.0300698 0.00885017
atom 22.0844 18.3953 0.830325 O 0 -0.301447 -0.0182233 0.00170795 0.0351484
atom 19.4361 13.2289 5.79908 O 0 -0.312576 -0.0113097 -0.0024489 -0.0249767
atom 5.84702 16.9352 2.12309 O 0 -0.308831 -0.0105119 0.0306189 -0.00355017
atom 23.0414 22.1108 4.81954 O 0 -0.340232 0.0401017 0.0048986 0.0010484
atom 22.5925 19.1833 20.1136 O 0 -0.288066 -0.00938648 0.0482154 0.00730614
atom 19.7359 23.6137 22.3651 O 0 -0.301884 -0.00417681 0.0348684 -0.0212839
atom 12.1616 10.2389 8.20417 O 0 -0.296777 0.0183506 -0.0176451 0.00916558
atom 0.022976 4.74262 10.9066 O 0 -0.330053 -0.0295235 0.00923256 0.0130772
atom 18.4366 3.89837 23.311 O 0 -0.31226 -0.0219619 0.0278579 0.000740808
atom 23.4837 12.5806 0.388454 O 0 -0.289157 0.0506867 -0.0654849 -0.00712346
atom 7.96468 9.92582 15.0697 O 0 -0.317559 0.00607071 -0.002515 0.0103659
atom 17.2527 18.0169 17.9217 O 0 -0.302689 0.00270947 0.0134272 -0.00109434
atom 14.9365 16.5107 13.0108 O 0 -0.319702 0.0202551 -0.00689047 0.0267431
atom 16.2767 23.1405 9.83381 O 0 -0.310792 0.00734287 -0.0373336 -0.00314133
atom 24.1254 22.421 16.3509 O 0 -0.317415 0.000621537 0.00188783 -0.00463537
atom 6.02431 12.7467 10.7448 O 0 -0.303091 0.0107385 0.050708 -0.047724
atom 21.3525 11.2722 10.7252 O 0 -0.308414 -0.0473457 -0.00740527 -0.0170879
atom 17.3948 4.19562 15.6704 O 0 -0.317972 0.00488548 0.0104436 0.00850357
atom 5.42389 5.25669 21.4619 O 0 -0.30158 0.0166184 0.00349098 -0.0169645
atom 19.6251 13.3435 19.8715 O 0 -0.298467 -0.0199281 0.00461572 0.0115407
atom 8.01081 13.0092 4.15254 O 0 -0.304657 0.00660329 0.00249985 0.0337027
atom 21.9822 20.1088 9.61914 O 0 -0.317694 -0.0125095 0.00486164 0.0102173
atom 10.3261 15.1221 20.3142 O 0 -0.328016 -0.000596244 -0.00547802 -0.00248623
atom 14.3383 7.84824 17.7906 O 0 -0.329785 -0.00264502 0.0133664 0.00625377
atom 11.9135 21.7555 11.3945 O 0 -0.32569 -0.000333047 -0.0294929 -0.0156687
atom 23.4249 8.3719 4.04855 O 0 -0.301103 0.00561375 -0.0267823 0.0150378
atom 6.06987 20.2153 17.6673 O 0 -0.317645 0.00897517 0.0122165 0.00599433
atom 2.8782 19.0182 23.2646 O 0 -0.338921 -0.00989294 -0.000433943 0.016532
atom 3.01729 20.3499 7.3063 O 0 -0.310515 -0.0148733 0.0245752 0.0173146
atom 13.123 4.79539 9.38046 O 0 -0.309883 0.00685621 0.00574911 0.0194772
atom 3.20845 16.4723 19.1675 O 0 -0.340086 -0.0208836 -0.00373738 -0.00234726
atom 21.9171 1.95562 2.74929 O 0 -0.320021 -0.00163967 -0.015891 -0.0316862
atom 7.17385 22.9076 7.01243 O 0 -0.308321 0.0339794 0.0138073 0.00100968
atom 10.621 2.10459 13.506 O 0 -0.321749 -0.00888887 0.00733824 -0.00594452
atom 2.07452 0.365108 9.88876 O 0 -0.336417 -0.0190008 -0.0117067 -0.0110848
atom 15.6045 10.1427 3.88803 O 0 -0.310272 0.0192419 0.0167643 0.0179297
atom 2.8864 6.04929 15.3229 O 0 -0.328221 0.0384637 0.0461098 -0.0344392
atom 24.2722 14.2323 16.0913 O 0 -0.308659 0.00908759 -0.0141425 0.0208968
atom 1.96805 10.7088 13.0669 O 0 -0.306984 0.0131726 -0.00791319 0.000594592
atom 14.6326 12.7844 18.1575 O 0 -0.313366 -0.0477876 -0.00596973 -0.00877823
atom 12.1299 0.0730022 6.11096 O 0 -0.314121 0.0059812 -0.0220997 0.013288
atom 12.5156 12.2546 12.9705 O 0 -0.335306 -0.00600122 -0.0126015 0.00562523
atom 13.1583 19.3298 20.7772 O 0 -0.296139 -0.0204533 0.0100643 0.0257269
atom 23.1147 3.4019 16.3241 O 0 -0.290253 -0.0238879 0.0411561 0.00660557
atom 17.7761 3.55393 10.6585 O 0 -0.326887 -0.00818896 -0.000952743 -0.000623034
atom 13.6834 3.88267 21.0251 O 0 -0.314185 -0.0365415 0.00582237 -0.0150804
atom 5.77141 12.6167 19.9335 O 0 -0.339298 0.0155829 -0.015704 0.000188575
atom 11.5709 24.5173 18.6866 O 0 -0.341903 0.0101563 -0.0379928 -0.0288853
atom 17.0166 18.0078 7.82288 O 0 -0.309294 -0.0240837 -0.00514409 -0.00081998
atom 19.4673 9.51299 24.347 O 0 -0.298596 0.00423844 0.00537956 -0.011698
atom 3.51326 10.9286 6.49939 O 0 -0.309472 0.00902293 -0.0025308 -0.0193941
energy -39.5627
charge 0
end
