################################################################################
# Symmetry function scaling data.
################################################################################
# Col  Name     Description
################################################################################
# 1    e_index  Element index.
# 2    sf_index Symmetry function index.
# 3    sf_min   Symmetry function minimum.
# 4    sf_max   Symmetry function maximum.
# 5    sf_mean  Symmetry function mean.
# 6    sf_sigma Symmetry function sigma.
#########################################################################################################################
#        1          2                        3                        4                        5                        6
#  e_index   sf_index                   sf_min                   sf_max                  sf_mean                 sf_sigma
#########################################################################################################################
         1          1   1.5699571890529169E+00   2.9993157816331406E+00   2.2686508387797044E+00   1.7292314563326780E-01
         1          2   9.8023278989802354E-01   1.6732579634031588E+00   1.3251571931978807E+00   8.0896385862795656E-02
         1          3   1.0870269443436975E+00   2.2481598145493780E+00   1.6476973080335786E+00   1.4223149816517175E-01
         1          4   7.1454553757580208E-01   1.3105735765760249E+00   1.0146640313881725E+00   6.6229936867203992E-02
         1          5   5.4104173972171699E-01   1.3144696062109069E+00   9.1133471493051199E-01   9.6738630224427968E-02
         1          6   4.3075141321838689E-01   8.4418060440715725E-01   6.4841481801504075E-01   4.5257307337803955E-02
         1          7   2.5375979530377457E-01   7.5198919357439498E-01   4.6023366442141667E-01   5.8516966431850143E-02
         1          8   2.9167323057267353E-01   5.4102861052390860E-01   4.2418344542902159E-01   2.9455585710523022E-02
         1          9   2.7758959684925893E-01   4.5430046784509526E-01   3.6322383815554121E-01   2.5481071028607444E-02
         1         10   2.7677184609602024E-01   9.6846921964970312E-01   5.4327271417317291E-01   7.9925652498514230E-02
         1         11   2.1755698377084223E-01   3.2957340047598394E-01   2.7145992304805533E-01   1.3862094761005278E-02
         1         12   1.6199444629525397E-01   6.1317559749755191E-01   3.0330270381648450E-01   4.7424636169973181E-02
         1         13   1.3473364909510885E-01   2.5106074589571609E-01   1.9283413257660253E-01   1.3120235093073336E-02
         1         14   7.7929103127933982E-02   3.2598529067353726E-01   1.6078867111013947E-01   2.5152306395801797E-02
         1         15   2.7881931447828114E-02   1.5798219959475654E-01   8.4688653696823379E-02   1.4629986817621968E-02
         1         16   8.9443174471997931E-03   1.6022545999198295E-01   5.4283602326344299E-02   1.8111316801654606E-02
         1         17   1.4903427184453407E-03   3.1294831460606166E-02   1.7019001163625612E-02   4.2532208893636203E-03
         1         18   9.1996142477655755E-03   3.9589871855703458E-02   2.0517315529533574E-02   3.3155797009708074E-03
         1         19   1.4191928131507118E-03   3.6993771436676787E-02   1.6581620262902948E-02   4.6227709524062632E-03
         1         20   7.5484016073923049E-02   2.2159906742072671E-01   1.3928139304425960E-01   1.6910119138702884E-02
         1         21   5.2984007884836889E-03   4.3393225214535390E-02   1.7559105231702218E-02   4.3190128027836812E-03
         1         22   3.7971636366232025E-04   1.4112542856046375E-02   5.9348337475784267E-03   1.9294055670411494E-03
         1         23   4.3201675874412759E-02   1.2927862759783706E-01   7.8821798393671844E-02   1.0436626967582350E-02
         1         24   8.8524093165083843E-04   9.5087006849087514E-03   3.8928423401545561E-03   1.0489263581433764E-03
         1         25   1.3204079299357937E-03   9.5189616336594975E-03   3.6891056792564933E-03   8.0398428802717307E-04
         1         26   1.4876763694489981E-02   3.8779314521092775E-02   2.4457891256096723E-02   2.5182110147511602E-03
         1         27   9.6846362313738482E-04   4.5994311603075539E-03   2.3462789481860807E-03   4.2120908229075334E-04
         2          1   1.9699860063630470E+00   3.4016796593105627E+00   2.6503143863957606E+00   1.7132623479995396E-01
         2          2   6.7321506333513448E-01   1.3074709948751824E+00   9.6212709340407432E-01   7.8785192671438631E-02
         2          3   1.4702946005454127E+00   2.6568445373459069E+00   2.0293280627763464E+00   1.3906452758505133E-01
         2          4   4.2634402694463164E-01   9.3948885254100389E-01   6.5509441568016991E-01   6.2365912357468481E-02
         2          5   8.9172993405118983E-01   1.7082864940779450E+00   1.2968296360300815E+00   9.2419012530468789E-02
         2          6   1.6904325476061191E-01   4.7863787256086954E-01   3.0259420145315097E-01   3.8056944581625549E-02
         2          7   5.9615248634345397E-01   1.1077964425649858E+00   8.4836689085804351E-01   5.5690080938026701E-02
         2          8   4.9561443351066110E-02   1.8939639965077959E-01   1.0838929099196876E-01   1.8887434869092407E-02
         2          9   5.6899698022452561E-01   8.9906537030947475E-01   7.2644767631108342E-01   4.0012252194194152E-02
         2         10   2.2609170249478874E-01   7.9103023615086332E-01   4.6749755896969403E-01   7.1987147720302541E-02
         2         11   4.5526608254587575E-01   6.1935191255641364E-01   5.4291984609611055E-01   2.0146457129346637E-02
         2         12   1.0184096322997847E-01   5.8176341402761922E-01   3.0813199624160670E-01   6.6334207434898221E-02
         2         13   2.8975900847228009E-01   4.6387363618389893E-01   3.8566826515320513E-01   1.9711978940392252E-02
         2         14   2.0673328344407611E-02   4.3040542611124966E-01   1.6711050920123921E-01   5.5543240659247727E-02
         2         15   8.2344080297887312E-02   2.6395276955034341E-01   1.6937730739364679E-01   2.0830387313020629E-02
         2         16   2.7827694860957852E-04   2.1455020847020650E-01   4.2921828659000946E-02   2.8109961715782068E-02
         2         17   3.5545442992378738E-03   3.0157344472799885E-02   1.4824829885293286E-02   3.1969879964870748E-03
         2         18   9.3674092802263729E-05   2.0899626403046642E-03   6.2480804252896876E-04   2.5092899009754972E-04
         2         19   9.4397688882744538E-02   3.1852488154025077E-01   1.9022151402788526E-01   2.6594142067981993E-02
         2         20   4.2462786174256185E-03   2.0906090142624279E-02   9.8203211867620224E-03   2.0463242806762990E-03
         2         21   8.0489558980127145E-03   5.3318158466138410E-02   2.9760517754368308E-02   5.0572361858249289E-03
         2         22   2.6658774032555701E-02   1.3288908782467643E-01   7.0749360257979121E-02   1.2498418527007480E-02
         2         23   2.1729105402960979E-02   8.2541111040838389E-02   4.7879188475146300E-02   6.7859075185805655E-03
         2         24   1.3150064927227518E-03   1.4784120079625370E-02   6.0781179309204259E-03   1.6943739618754748E-03
         2         25   3.0287139523310426E-05   8.5783298457263403E-04   2.1885544820390740E-04   9.4521230408131754E-05
         2         26   1.6638001066574912E-02   9.5659676893371778E-02   4.8501715150227817E-02   8.8742654847653417E-03
         2         27   1.1429533795335239E-02   6.5636079359073354E-02   3.3232586420011506E-02   7.3938188694728981E-03
         2         28   1.0761373577135793E-04   2.3461510711166931E-03   6.2384368443450799E-04   2.4140084082758989E-04
         2         29   1.0153237406585363E-02   2.3962345764674108E-02   1.6457230862691161E-02   1.7944714729430434E-03
         2         30   4.7003651613431912E-03   2.1237996716090612E-02   1.1689766072662077E-02   1.9326223207209322E-03
